# vtk DataFile Version 3.0
Channel flow
ASCII
DATASET STRUCTURED_POINTS
DIMENSIONS 120 40 1
ORIGIN 0.025 0.0125 0
SPACING 0.05 0.025 1
POINT_DATA 4800
SCALARS p double 1
LOOKUP_TABLE default
1.311792e+00
1.311792e+00
1.118165e+00
1.015713e+00
9.580077e-01
9.209408e-01
8.939810e-01
8.725163e-01
8.543396e-01
8.382762e-01
8.236448e-01
8.100256e-01
7.971487e-01
7.848351e-01
7.729634e-01
7.614497e-01
7.502348e-01
7.392765e-01
7.285439e-01
7.180141e-01
7.076698e-01
6.974974e-01
6.874859e-01
6.776263e-01
6.679109e-01
6.583330e-01
6.488865e-01
6.395658e-01
6.303659e-01
6.212818e-01
6.123091e-01
6.034433e-01
5.946803e-01
5.860161e-01
5.774471e-01
5.689694e-01
5.605797e-01
5.522746e-01
5.440509e-01
5.359055e-01
5.278356e-01
5.198383e-01
5.119109e-01
5.040508e-01
4.962556e-01
4.885230e-01
4.808506e-01
4.732363e-01
4.656780e-01
4.581737e-01
4.507215e-01
4.433196e-01
4.359661e-01
4.286594e-01
4.213979e-01
4.141800e-01
4.070041e-01
3.998688e-01
3.927728e-01
3.857146e-01
3.786929e-01
3.717066e-01
3.647543e-01
3.578350e-01
3.509475e-01
3.440908e-01
3.372637e-01
3.304652e-01
3.236945e-01
3.169505e-01
3.102323e-01
3.035391e-01
2.968701e-01
2.902243e-01
2.836010e-01
2.769994e-01
2.704189e-01
2.638586e-01
2.573179e-01
2.507961e-01
2.442927e-01
2.378068e-01
2.313381e-01
2.248858e-01
2.184494e-01
2.120284e-01
2.056222e-01
1.992304e-01
1.928524e-01
1.864877e-01
1.801360e-01
1.737968e-01
1.674696e-01
1.611540e-01
1.548497e-01
1.485562e-01
1.422732e-01
1.360003e-01
1.297371e-01
1.234834e-01
1.172388e-01
1.110030e-01
1.047757e-01
9.855662e-02
9.234545e-02
8.614193e-02
7.994583e-02
7.375687e-02
6.757483e-02
6.139947e-02
5.523059e-02
4.906798e-02
4.291144e-02
3.676080e-02
3.061590e-02
2.447663e-02
1.834295e-02
1.221514e-02
6.094575e-03
0.000000e+00
1.311792e+00
1.311792e+00
1.118165e+00
1.015713e+00
9.580077e-01
9.209408e-01
8.939810e-01
8.725163e-01
8.543396e-01
8.382762e-01
8.236448e-01
8.100256e-01
7.971487e-01
7.848351e-01
7.729634e-01
7.614497e-01
7.502348e-01
7.392765e-01
7.285439e-01
7.180141e-01
7.076698e-01
6.974974e-01
6.874859e-01
6.776263e-01
6.679109e-01
6.583330e-01
6.488865e-01
6.395658e-01
6.303659e-01
6.212818e-01
6.123091e-01
6.034433e-01
5.946803e-01
5.860161e-01
5.774471e-01
5.689694e-01
5.605797e-01
5.522746e-01
5.440509e-01
5.359055e-01
5.278356e-01
5.198383e-01
5.119109e-01
5.040508e-01
4.962556e-01
4.885230e-01
4.808506e-01
4.732363e-01
4.656780e-01
4.581737e-01
4.507215e-01
4.433196e-01
4.359661e-01
4.286594e-01
4.213979e-01
4.141800e-01
4.070041e-01
3.998688e-01
3.927728e-01
3.857146e-01
3.786929e-01
3.717066e-01
3.647543e-01
3.578350e-01
3.509475e-01
3.440908e-01
3.372637e-01
3.304652e-01
3.236945e-01
3.169505e-01
3.102323e-01
3.035391e-01
2.968701e-01
2.902243e-01
2.836010e-01
2.769994e-01
2.704189e-01
2.638586e-01
2.573179e-01
2.507961e-01
2.442927e-01
2.378068e-01
2.313381e-01
2.248858e-01
2.184494e-01
2.120284e-01
2.056222e-01
1.992304e-01
1.928524e-01
1.864877e-01
1.801360e-01
1.737968e-01
1.674696e-01
1.611540e-01
1.548497e-01
1.485562e-01
1.422732e-01
1.360003e-01
1.297371e-01
1.234834e-01
1.172388e-01
1.110030e-01
1.047757e-01
9.855662e-02
9.234545e-02
8.614193e-02
7.994583e-02
7.375687e-02
6.757483e-02
6.139947e-02
5.523059e-02
4.906798e-02
4.291144e-02
3.676080e-02
3.061590e-02
2.447663e-02
1.834295e-02
1.221514e-02
6.094575e-03
0.000000e+00
1.267496e+00
1.267496e+00
1.120045e+00
1.025650e+00
9.670911e-01
9.280624e-01
8.994874e-01
8.768334e-01
8.577827e-01
8.410652e-01
8.259347e-01
8.119282e-01
7.987463e-01
7.861898e-01
7.741224e-01
7.624497e-01
7.511045e-01
7.400386e-01
7.292165e-01
7.186119e-01
7.082045e-01
6.979785e-01
6.879213e-01
6.780225e-01
6.682732e-01
6.586658e-01
6.491935e-01
6.398501e-01
6.306300e-01
6.215280e-01
6.125392e-01
6.036589e-01
5.948829e-01
5.862069e-01
5.776270e-01
5.691394e-01
5.607406e-01
5.524271e-01
5.441956e-01
5.360431e-01
5.279665e-01
5.199629e-01
5.120296e-01
5.041641e-01
4.963638e-01
4.886264e-01
4.809495e-01
4.733309e-01
4.657685e-01
4.582604e-01
4.508046e-01
4.433993e-01
4.360425e-01
4.287328e-01
4.214683e-01
4.142476e-01
4.070690e-01
3.999312e-01
3.928327e-01
3.857722e-01
3.787483e-01
3.717599e-01
3.648056e-01
3.578844e-01
3.509950e-01
3.441365e-01
3.373077e-01
3.305076e-01
3.237353e-01
3.169898e-01
3.102702e-01
3.035756e-01
2.969052e-01
2.902581e-01
2.836336e-01
2.770308e-01
2.704491e-01
2.638878e-01
2.573460e-01
2.508233e-01
2.443188e-01
2.378320e-01
2.313624e-01
2.249092e-01
2.184720e-01
2.120501e-01
2.056432e-01
1.992506e-01
1.928719e-01
1.865066e-01
1.801542e-01
1.738143e-01
1.674865e-01
1.611703e-01
1.548654e-01
1.485713e-01
1.422878e-01
1.360144e-01
1.297507e-01
1.234965e-01
1.172515e-01
1.110152e-01
1.047875e-01
9.856796e-02
9.235638e-02
8.615248e-02
7.995599e-02
7.376668e-02
6.758428e-02
6.140859e-02
5.523938e-02
4.907645e-02
4.291961e-02
3.676867e-02
3.062351e-02
2.448398e-02
1.835005e-02
1.222180e-02
6.099311e-03
0.000000e+00
1.217552e+00
1.217552e+00
1.111680e+00
1.030420e+00
9.741168e-01
9.344252e-01
9.047394e-01
8.810995e-01
8.612599e-01
8.439219e-01
8.283015e-01
8.139050e-01
8.004101e-01
7.876002e-01
7.753266e-01
7.634848e-01
7.520003e-01
7.408189e-01
7.299006e-01
7.192154e-01
7.087402e-01
6.984569e-01
6.883510e-01
6.784105e-01
6.686253e-01
6.589870e-01
6.494877e-01
6.401208e-01
6.308800e-01
6.217597e-01
6.127546e-01
6.038599e-01
5.950708e-01
5.863831e-01
5.777925e-01
5.692953e-01
5.608876e-01
5.525660e-01
5.443271e-01
5.361677e-01
5.280847e-01
5.200752e-01
5.121365e-01
5.042659e-01
4.964608e-01
4.887188e-01
4.810377e-01
4.734152e-01
4.658491e-01
4.583375e-01
4.508784e-01
4.434699e-01
4.361102e-01
4.287976e-01
4.215304e-01
4.143072e-01
4.071262e-01
3.999861e-01
3.928854e-01
3.858228e-01
3.787970e-01
3.718066e-01
3.648506e-01
3.579276e-01
3.510366e-01
3.441764e-01
3.373461e-01
3.305446e-01
3.237709e-01
3.170240e-01
3.103032e-01
3.036073e-01
2.969358e-01
2.902875e-01
2.836619e-01
2.770582e-01
2.704755e-01
2.639131e-01
2.573704e-01
2.508468e-01
2.443415e-01
2.378539e-01
2.313834e-01
2.249295e-01
2.184915e-01
2.120690e-01
2.056614e-01
1.992681e-01
1.928888e-01
1.865228e-01
1.801699e-01
1.738294e-01
1.675011e-01
1.611844e-01
1.548789e-01
1.485844e-01
1.423004e-01
1.360265e-01
1.297624e-01
1.235078e-01
1.172624e-01
1.110257e-01
1.047976e-01
9.857774e-02
9.236581e-02
8.616157e-02
7.996476e-02
7.377512e-02
6.759242e-02
6.141642e-02
5.524693e-02
4.908372e-02
4.292660e-02
3.677539e-02
3.062994e-02
2.449011e-02
1.835575e-02
1.222662e-02
6.101726e-03
0.000000e+00
1.172240e+00
1.172240e+00
1.097636e+00
1.030596e+00
9.788922e-01
9.399670e-01
9.098393e-01
8.854898e-01
8.649608e-01
8.470250e-01
8.309044e-01
8.160944e-01
8.022587e-01
7.891679e-01
7.766622e-01
7.646283e-01
7.529844e-01
7.416703e-01
7.306413e-01
7.198635e-01
7.093104e-01
6.989614e-01
6.887998e-01
6.788120e-01
6.689865e-01
6.593134e-01
6.497842e-01
6.403914e-01
6.311280e-01
6.219879e-01
6.129654e-01
6.040552e-01
5.952523e-01
5.865523e-01
5.779507e-01
5.694435e-01
5.610268e-01
5.526970e-01
5.444506e-01
5.362842e-01
5.281949e-01
5.201796e-01
5.122355e-01
5.043598e-01
4.965501e-01
4.888038e-01
4.811186e-01
4.734923e-01
4.659226e-01
4.584077e-01
4.509454e-01
4.435339e-01
4.361714e-01
4.288562e-01
4.215865e-01
4.143609e-01
4.071777e-01
4.000354e-01
3.929327e-01
3.858682e-01
3.788405e-01
3.718485e-01
3.648907e-01
3.579662e-01
3.510736e-01
3.442120e-01
3.373803e-01
3.305775e-01
3.238025e-01
3.170545e-01
3.103324e-01
3.036355e-01
2.969629e-01
2.903136e-01
2.836870e-01
2.770823e-01
2.704987e-01
2.639355e-01
2.573920e-01
2.508676e-01
2.443615e-01
2.378732e-01
2.314020e-01
2.249474e-01
2.185088e-01
2.120856e-01
2.056774e-01
1.992835e-01
1.929036e-01
1.865372e-01
1.801837e-01
1.738427e-01
1.675139e-01
1.611967e-01
1.548909e-01
1.485959e-01
1.423115e-01
1.360372e-01
1.297727e-01
1.235178e-01
1.172719e-01
1.110350e-01
1.048065e-01
9.858631e-02
9.237407e-02
8.616953e-02
7.997242e-02
7.378250e-02
6.759953e-02
6.142327e-02
5.525351e-02
4.909004e-02
4.293266e-02
3.678119e-02
3.063544e-02
2.449524e-02
1.836030e-02
1.223007e-02
6.102937e-03
0.000000e+00
1.134162e+00
1.134162e+00
1.081448e+00
1.027314e+00
9.813513e-01
9.443752e-01
9.145527e-01
8.898898e-01
8.688588e-01
8.503999e-01
8.337961e-01
8.185608e-01
8.043594e-01
7.909579e-01
7.781901e-01
7.659357e-01
7.541067e-01
7.426375e-01
7.314782e-01
7.205910e-01
7.099459e-01
6.995193e-01
6.892922e-01
6.792488e-01
6.693760e-01
6.596625e-01
6.500987e-01
6.406759e-01
6.313867e-01
6.222241e-01
6.131820e-01
6.042545e-01
5.954364e-01
5.867228e-01
5.781092e-01
5.695912e-01
5.611648e-01
5.528262e-01
5.445718e-01
5.363982e-01
5.283022e-01
5.202808e-01
5.123311e-01
5.044503e-01
4.966358e-01
4.888851e-01
4.811958e-01
4.735656e-01
4.659924e-01
4.584741e-01
4.510087e-01
4.435943e-01
4.362290e-01
4.289112e-01
4.216391e-01
4.144111e-01
4.072257e-01
4.000814e-01
3.929768e-01
3.859104e-01
3.788810e-01
3.718872e-01
3.649279e-01
3.580018e-01
3.511078e-01
3.442449e-01
3.374119e-01
3.306078e-01
3.238316e-01
3.170824e-01
3.103593e-01
3.036613e-01
2.969877e-01
2.903375e-01
2.837100e-01
2.771044e-01
2.705200e-01
2.639560e-01
2.574117e-01
2.508865e-01
2.443797e-01
2.378907e-01
2.314189e-01
2.249637e-01
2.185244e-01
2.121007e-01
2.056919e-01
1.992976e-01
1.929171e-01
1.865502e-01
1.801962e-01
1.738548e-01
1.675255e-01
1.612079e-01
1.549017e-01
1.486063e-01
1.423215e-01
1.360469e-01
1.297821e-01
1.235268e-01
1.172806e-01
1.110433e-01
1.048145e-01
9.859406e-02
9.238154e-02
8.617673e-02
7.997935e-02
7.378917e-02
6.760594e-02
6.142944e-02
5.525943e-02
4.909571e-02
4.293808e-02
3.678634e-02
3.064027e-02
2.449964e-02
1.836406e-02
1.223272e-02
6.103811e-03
0.000000e+00
1.103032e+00
1.103032e+00
1.065223e+00
1.021822e+00
9.817624e-01
9.474717e-01
9.186007e-01
8.940569e-01
8.727798e-01
8.539356e-01
8.369134e-01
8.212747e-01
8.067052e-01
7.929776e-01
7.799261e-01
7.674276e-01
7.553902e-01
7.437437e-01
7.324343e-01
7.214200e-01
7.106675e-01
7.001501e-01
6.898460e-01
6.797374e-01
6.698090e-01
6.600482e-01
6.504439e-01
6.409864e-01
6.316671e-01
6.224786e-01
6.134138e-01
6.044665e-01
5.956311e-01
5.869022e-01
5.782750e-01
5.697449e-01
5.613076e-01
5.529593e-01
5.446961e-01
5.365146e-01
5.284114e-01
5.203835e-01
5.124277e-01
5.045414e-01
4.967218e-01
4.889664e-01
4.812727e-01
4.736385e-01
4.660616e-01
4.585398e-01
4.510712e-01
4.436537e-01
4.362856e-01
4.289651e-01
4.216905e-01
4.144602e-01
4.072726e-01
4.001262e-01
3.930196e-01
3.859513e-01
3.789201e-01
3.719247e-01
3.649638e-01
3.580362e-01
3.511408e-01
3.442765e-01
3.374422e-01
3.306369e-01
3.238596e-01
3.171093e-01
3.103851e-01
3.036861e-01
2.970115e-01
2.903604e-01
2.837320e-01
2.771255e-01
2.705403e-01
2.639755e-01
2.574305e-01
2.509046e-01
2.443971e-01
2.379074e-01
2.314350e-01
2.249791e-01
2.185394e-01
2.121151e-01
2.057057e-01
1.993109e-01
1.929299e-01
1.865625e-01
1.802081e-01
1.738663e-01
1.675366e-01
1.612186e-01
1.549119e-01
1.486162e-01
1.423310e-01
1.360560e-01
1.297909e-01
1.235352e-01
1.172888e-01
1.110512e-01
1.048222e-01
9.860138e-02
9.238859e-02
8.618351e-02
7.998589e-02
7.379546e-02
6.761199e-02
6.143524e-02
5.526500e-02
4.910103e-02
4.294315e-02
3.679112e-02
3.064472e-02
2.450364e-02
1.836740e-02
1.223510e-02
6.104941e-03
0.000000e+00
1.077765e+00
1.077765e+00
1.050030e+00
1.015155e+00
9.805841e-01
9.492870e-01
9.218159e-01
8.977698e-01
8.765150e-01
8.574594e-01
8.401231e-01
8.241381e-01
8.092266e-01
7.951798e-01
7.818396e-01
7.690857e-01
7.568252e-01
7.449858e-01
7.335107e-01
7.223547e-01
7.114812e-01
7.008609e-01
6.904692e-01
6.802859e-01
6.702939e-01
6.604787e-01
6.508278e-01
6.413303e-01
6.319766e-01
6.227582e-01
6.136675e-01
6.046977e-01
5.958424e-01
5.870961e-01
5.784535e-01
5.699097e-01
5.614603e-01
5.531011e-01
5.448281e-01
5.366377e-01
5.285266e-01
5.204913e-01
5.125289e-01
5.046365e-01
4.968114e-01
4.890509e-01
4.813525e-01
4.737140e-01
4.661330e-01
4.586075e-01
4.511353e-01
4.437146e-01
4.363435e-01
4.290202e-01
4.217430e-01
4.145102e-01
4.073202e-01
4.001716e-01
3.930629e-01
3.859928e-01
3.789597e-01
3.719625e-01
3.650000e-01
3.580709e-01
3.511740e-01
3.443083e-01
3.374727e-01
3.306661e-01
3.238876e-01
3.171361e-01
3.104108e-01
3.037108e-01
2.970352e-01
2.903832e-01
2.837539e-01
2.771466e-01
2.705605e-01
2.639949e-01
2.574492e-01
2.509225e-01
2.444144e-01
2.379241e-01
2.314510e-01
2.249945e-01
2.185542e-01
2.121293e-01
2.057194e-01
1.993241e-01
1.929427e-01
1.865748e-01
1.802199e-01
1.738776e-01
1.675475e-01
1.612291e-01
1.549221e-01
1.486259e-01
1.423404e-01
1.360651e-01
1.297996e-01
1.235437e-01
1.172969e-01
1.110590e-01
1.048297e-01
9.860862e-02
9.239557e-02
8.619023e-02
7.999235e-02
7.380167e-02
6.761795e-02
6.144097e-02
5.527048e-02
4.910628e-02
4.294813e-02
3.679582e-02
3.064907e-02
2.450754e-02
1.837071e-02
1.223765e-02
6.106749e-03
0.000000e+00
1.057218e+00
1.057218e+00
1.036324e+00
1.008067e+00
9.783082e-01
9.499995e-01
9.241693e-01
9.008966e-01
8.798977e-01
8.608051e-01
8.432763e-01
8.270249e-01
8.118207e-01
7.974824e-01
7.838669e-01
7.708610e-01
7.583748e-01
7.463363e-01
7.346873e-01
7.233806e-01
7.123772e-01
7.016452e-01
6.911577e-01
6.808924e-01
6.708301e-01
6.609546e-01
6.512519e-01
6.417098e-01
6.323175e-01
6.230658e-01
6.139460e-01
6.049509e-01
5.960735e-01
5.873077e-01
5.786478e-01
5.700888e-01
5.616257e-01
5.532543e-01
5.449705e-01
5.367703e-01
5.286502e-01
5.206069e-01
5.126372e-01
5.047382e-01
4.969069e-01
4.891408e-01
4.814372e-01
4.737940e-01
4.662086e-01
4.586790e-01
4.512031e-01
4.437789e-01
4.364045e-01
4.290781e-01
4.217980e-01
4.145626e-01
4.073701e-01
4.002192e-01
3.931083e-01
3.860360e-01
3.790010e-01
3.720020e-01
3.650377e-01
3.581069e-01
3.512085e-01
3.443413e-01
3.375043e-01
3.306964e-01
3.239166e-01
3.171640e-01
3.104375e-01
3.037364e-01
2.970598e-01
2.904067e-01
2.837765e-01
2.771683e-01
2.705814e-01
2.640150e-01
2.574685e-01
2.509411e-01
2.444322e-01
2.379412e-01
2.314675e-01
2.250104e-01
2.185694e-01
2.121440e-01
2.057336e-01
1.993377e-01
1.929557e-01
1.865874e-01
1.802320e-01
1.738893e-01
1.675587e-01
1.612399e-01
1.549325e-01
1.486360e-01
1.423501e-01
1.360744e-01
1.298086e-01
1.235523e-01
1.173052e-01
1.110670e-01
1.048374e-01
9.861607e-02
9.240274e-02
8.619713e-02
7.999898e-02
7.380805e-02
6.762409e-02
6.144685e-02
5.527612e-02
4.911166e-02
4.295324e-02
3.680063e-02
3.065354e-02
2.451160e-02
1.837426e-02
1.224068e-02
6.109479e-03
0.000000e+00
1.040423e+00
1.040423e+00
1.024233e+00
1.001054e+00
9.753699e-01
9.498536e-01
9.257353e-01
9.034005e-01
8.828308e-01
8.638506e-01
8.462465e-01
8.298155e-01
8.143804e-01
7.997927e-01
7.859289e-01
7.726876e-01
7.599848e-01
7.477510e-01
7.359285e-01
7.244691e-01
7.133326e-01
7.024849e-01
6.918974e-01
6.815457e-01
6.714089e-01
6.614692e-01
6.517110e-01
6.421209e-01
6.326871e-01
6.233992e-01
6.142480e-01
6.052254e-01
5.963238e-01
5.875368e-01
5.788581e-01
5.702824e-01
5.618045e-01
5.534199e-01
5.451241e-01
5.369132e-01
5.287834e-01
5.207313e-01
5.127537e-01
5.048473e-01
4.970094e-01
4.892371e-01
4.815280e-01
4.738796e-01
4.662894e-01
4.587554e-01
4.512754e-01
4.438474e-01
4.364695e-01
4.291398e-01
4.218567e-01
4.146183e-01
4.074232e-01
4.002697e-01
3.931564e-01
3.860819e-01
3.790448e-01
3.720438e-01
3.650777e-01
3.581451e-01
3.512450e-01
3.443763e-01
3.375378e-01
3.307284e-01
3.239473e-01
3.171934e-01
3.104657e-01
3.037635e-01
2.970857e-01
2.904317e-01
2.838004e-01
2.771913e-01
2.706035e-01
2.640362e-01
2.574888e-01
2.509607e-01
2.444510e-01
2.379593e-01
2.314849e-01
2.250271e-01
2.185855e-01
2.121595e-01
2.057485e-01
1.993520e-01
1.929695e-01
1.866006e-01
1.802448e-01
1.739016e-01
1.675706e-01
1.612513e-01
1.549435e-01
1.486466e-01
1.423603e-01
1.360842e-01
1.298180e-01
1.235614e-01
1.173140e-01
1.110755e-01
1.048455e-01
9.862390e-02
9.241027e-02
8.620439e-02
8.000597e-02
7.381477e-02
6.763054e-02
6.145305e-02
5.528205e-02
4.911733e-02
4.295863e-02
3.680573e-02
3.065830e-02
2.451599e-02
1.837827e-02
1.224440e-02
6.113245e-03
0.000000e+00
1.026620e+00
1.026620e+00
1.013721e+00
9.944247e-01
9.721150e-01
9.490990e-01
9.266444e-01
9.053157e-01
8.852835e-01
8.665272e-01
8.489462e-01
8.324164e-01
8.168138e-01
8.020247e-01
7.879484e-01
7.744973e-01
7.615958e-01
7.491788e-01
7.371906e-01
7.255834e-01
7.143162e-01
7.033539e-01
6.926663e-01
6.822275e-01
6.720151e-01
6.620096e-01
6.521944e-01
6.425548e-01
6.330778e-01
6.237523e-01
6.145683e-01
6.055168e-01
5.965899e-01
5.877804e-01
5.790819e-01
5.704885e-01
5.619949e-01
5.535962e-01
5.452877e-01
5.370654e-01
5.289254e-01
5.208639e-01
5.128777e-01
5.049636e-01
4.971186e-01
4.893398e-01
4.816247e-01
4.739707e-01
4.663755e-01
4.588368e-01
4.513524e-01
4.439203e-01
4.365386e-01
4.292054e-01
4.219190e-01
4.146776e-01
4.074796e-01
4.003234e-01
3.932076e-01
3.861307e-01
3.790914e-01
3.720883e-01
3.651201e-01
3.581857e-01
3.512838e-01
3.444134e-01
3.375733e-01
3.307624e-01
3.239799e-01
3.172246e-01
3.104957e-01
3.037922e-01
2.971133e-01
2.904581e-01
2.838258e-01
2.772156e-01
2.706268e-01
2.640587e-01
2.575104e-01
2.509814e-01
2.444709e-01
2.379784e-01
2.315033e-01
2.250448e-01
2.186025e-01
2.121758e-01
2.057642e-01
1.993672e-01
1.929841e-01
1.866147e-01
1.802583e-01
1.739146e-01
1.675831e-01
1.612634e-01
1.549551e-01
1.486578e-01
1.423711e-01
1.360946e-01
1.298280e-01
1.235710e-01
1.173233e-01
1.110844e-01
1.048541e-01
9.863219e-02
9.241826e-02
8.621208e-02
8.001337e-02
7.382189e-02
6.763738e-02
6.145962e-02
5.528835e-02
4.912335e-02
4.296438e-02
3.681118e-02
3.066345e-02
2.452082e-02
1.838283e-02
1.224886e-02
6.118027e-03
0.000000e+00
1.015236e+00
1.015236e+00
1.004683e+00
9.883555e-01
9.688004e-01
9.479584e-01
9.270455e-01
9.067176e-01
8.872738e-01
8.688124e-01
8.513279e-01
8.347662e-01
8.190533e-01
8.041102e-01
7.898594e-01
7.762286e-01
7.631518e-01
7.505696e-01
7.384293e-01
7.266844e-01
7.152941e-01
7.042225e-01
6.934387e-01
6.829155e-01
6.726291e-01
6.625592e-01
6.526876e-01
6.429988e-01
6.334788e-01
6.241156e-01
6.148984e-01
6.058178e-01
5.968652e-01
5.880329e-01
5.793142e-01
5.707028e-01
5.621931e-01
5.537799e-01
5.454584e-01
5.372243e-01
5.290736e-01
5.210025e-01
5.130075e-01
5.050853e-01
4.972329e-01
4.894473e-01
4.817260e-01
4.740663e-01
4.664657e-01
4.589221e-01
4.514331e-01
4.439968e-01
4.366112e-01
4.292743e-01
4.219844e-01
4.147398e-01
4.075388e-01
4.003798e-01
3.932613e-01
3.861820e-01
3.791403e-01
3.721350e-01
3.651647e-01
3.582283e-01
3.513246e-01
3.444524e-01
3.376106e-01
3.307982e-01
3.240141e-01
3.172574e-01
3.105271e-01
3.038223e-01
2.971422e-01
2.904858e-01
2.838524e-01
2.772412e-01
2.706514e-01
2.640822e-01
2.575331e-01
2.510032e-01
2.444919e-01
2.379986e-01
2.315226e-01
2.250634e-01
2.186204e-01
2.121931e-01
2.057808e-01
1.993831e-01
1.929995e-01
1.866294e-01
1.802725e-01
1.739283e-01
1.675963e-01
1.612761e-01
1.549673e-01
1.486695e-01
1.423824e-01
1.361055e-01
1.298386e-01
1.235812e-01
1.173330e-01
1.110938e-01
1.048632e-01
9.864092e-02
9.242666e-02
8.622017e-02
8.002116e-02
7.382938e-02
6.764459e-02
6.146654e-02
5.529500e-02
4.912971e-02
4.297046e-02
3.681697e-02
3.066896e-02
2.452608e-02
1.838793e-02
1.225401e-02
6.123699e-03
0.000000e+00
1.005845e+00
1.005845e+00
9.969928e-01
9.829389e-01
9.656086e-01
9.466153e-01
9.270819e-01
9.076988e-01
8.888482e-01
8.707169e-01
8.533762e-01
8.368324e-01
8.210564e-01
8.060014e-01
7.916125e-01
7.778328e-01
7.646062e-01
7.518797e-01
7.396044e-01
7.277356e-01
7.162332e-01
7.050613e-01
6.941883e-01
6.835862e-01
6.732304e-01
6.630994e-01
6.531743e-01
6.434383e-01
6.338770e-01
6.244774e-01
6.152282e-01
6.061192e-01
5.971415e-01
5.882869e-01
5.795483e-01
5.709191e-01
5.623934e-01
5.539659e-01
5.456315e-01
5.373857e-01
5.292243e-01
5.211435e-01
5.131396e-01
5.052094e-01
4.973495e-01
4.895572e-01
4.818296e-01
4.741640e-01
4.665581e-01
4.590095e-01
4.515159e-01
4.440753e-01
4.366856e-01
4.293450e-01
4.220516e-01
4.148037e-01
4.075996e-01
4.004377e-01
3.933166e-01
3.862347e-01
3.791906e-01
3.721830e-01
3.652106e-01
3.582722e-01
3.513666e-01
3.444925e-01
3.376490e-01
3.308350e-01
3.240494e-01
3.172912e-01
3.105595e-01
3.038534e-01
2.971720e-01
2.905144e-01
2.838799e-01
2.772676e-01
2.706767e-01
2.641066e-01
2.575564e-01
2.510256e-01
2.445135e-01
2.380193e-01
2.315426e-01
2.250826e-01
2.186389e-01
2.122108e-01
2.057979e-01
1.993995e-01
1.930153e-01
1.866447e-01
1.802872e-01
1.739424e-01
1.676099e-01
1.612892e-01
1.549799e-01
1.486817e-01
1.423941e-01
1.361168e-01
1.298494e-01
1.235916e-01
1.173431e-01
1.111035e-01
1.048726e-01
9.864993e-02
9.243534e-02
8.622852e-02
8.002921e-02
7.383713e-02
6.765204e-02
6.147370e-02
5.530187e-02
4.913631e-02
4.297678e-02
3.682302e-02
3.067476e-02
2.453168e-02
1.839346e-02
1.225972e-02
6.130036e-03
0.000000e+00
9.981313e-01
9.981313e-01
9.905283e-01
9.782155e-01
9.626648e-01
9.452138e-01
9.268795e-01
9.083527e-01
8.900661e-01
8.722706e-01
8.550980e-01
8.386048e-01
8.228011e-01
8.076689e-01
7.931741e-01
7.792743e-01
7.659234e-01
7.530746e-01
7.406830e-01
7.287062e-01
7.171049e-01
7.058439e-01
6.948909e-01
6.842177e-01
6.737990e-01
6.636122e-01
6.536379e-01
6.438586e-01
6.342590e-01
6.248256e-01
6.155464e-01
6.064108e-01
5.974094e-01
5.885338e-01
5.797764e-01
5.711303e-01
5.625895e-01
5.541482e-01
5.458014e-01
5.375443e-01
5.293727e-01
5.212826e-01
5.132701e-01
5.053320e-01
4.974650e-01
4.896660e-01
4.819322e-01
4.742610e-01
4.666498e-01
4.590963e-01
4.515982e-01
4.441534e-01
4.367598e-01
4.294155e-01
4.221186e-01
4.148675e-01
4.076603e-01
4.004956e-01
3.933718e-01
3.862873e-01
3.792409e-01
3.722310e-01
3.652565e-01
3.583161e-01
3.514086e-01
3.445327e-01
3.376875e-01
3.308719e-01
3.240847e-01
3.173251e-01
3.105920e-01
3.038846e-01
2.972019e-01
2.905431e-01
2.839074e-01
2.772940e-01
2.707021e-01
2.641310e-01
2.575799e-01
2.510482e-01
2.445351e-01
2.380402e-01
2.315626e-01
2.251019e-01
2.186574e-01
2.122287e-01
2.058150e-01
1.994161e-01
1.930312e-01
1.866600e-01
1.803019e-01
1.739566e-01
1.676235e-01
1.613023e-01
1.549926e-01
1.486939e-01
1.424058e-01
1.361281e-01
1.298603e-01
1.236021e-01
1.173532e-01
1.111133e-01
1.048820e-01
9.865898e-02
9.244405e-02
8.623692e-02
8.003729e-02
7.384491e-02
6.765953e-02
6.148091e-02
5.530880e-02
4.914296e-02
4.298316e-02
3.682915e-02
3.068067e-02
2.453745e-02
1.839922e-02
1.226573e-02
6.136743e-03
0.000000e+00
9.918586e-01
9.918586e-01
9.851801e-01
9.741966e-01
9.600525e-01
9.438632e-01
9.265428e-01
9.087646e-01
8.909890e-01
8.735122e-01
8.565129e-01
8.400881e-01
8.242808e-01
8.090981e-01
7.945244e-01
7.805302e-01
7.670786e-01
7.541289e-01
7.416399e-01
7.295716e-01
7.178861e-01
7.065482e-01
6.955261e-01
6.847910e-01
6.743170e-01
6.640812e-01
6.540634e-01
6.442456e-01
6.346118e-01
6.251481e-01
6.158420e-01
6.066825e-01
5.976597e-01
5.887650e-01
5.799904e-01
5.713289e-01
5.627741e-01
5.543203e-01
5.459620e-01
5.376946e-01
5.295135e-01
5.214147e-01
5.133943e-01
5.054489e-01
4.975751e-01
4.897699e-01
4.820304e-01
4.743538e-01
4.667377e-01
4.591796e-01
4.516772e-01
4.442283e-01
4.368310e-01
4.294832e-01
4.221830e-01
4.149288e-01
4.077188e-01
4.005514e-01
3.934250e-01
3.863381e-01
3.792893e-01
3.722774e-01
3.653008e-01
3.583585e-01
3.514491e-01
3.445716e-01
3.377247e-01
3.309075e-01
3.241188e-01
3.173578e-01
3.106234e-01
3.039147e-01
2.972308e-01
2.905709e-01
2.839341e-01
2.773196e-01
2.707267e-01
2.641546e-01
2.576026e-01
2.510700e-01
2.445561e-01
2.380603e-01
2.315820e-01
2.251206e-01
2.186754e-01
2.122459e-01
2.058317e-01
1.994321e-01
1.930466e-01
1.866748e-01
1.803162e-01
1.739703e-01
1.676368e-01
1.613151e-01
1.550049e-01
1.487057e-01
1.424172e-01
1.361391e-01
1.298709e-01
1.236123e-01
1.173630e-01
1.111227e-01
1.048911e-01
9.866775e-02
9.245251e-02
8.624506e-02
8.004513e-02
7.385246e-02
6.766680e-02
6.148790e-02
5.531553e-02
4.914943e-02
4.298939e-02
3.683515e-02
3.068648e-02
2.454316e-02
1.840496e-02
1.227176e-02
6.143469e-03
0.000000e+00
9.868526e-01
9.868526e-01
9.808566e-01
9.708777e-01
9.578263e-01
9.426445e-01
9.261555e-01
9.090072e-01
8.916736e-01
8.744820e-01
8.576459e-01
8.412948e-01
8.254983e-01
8.102846e-01
7.956535e-01
7.815870e-01
7.680560e-01
7.550254e-01
7.424574e-01
7.303142e-01
7.185590e-01
7.071574e-01
6.960775e-01
6.852903e-01
6.747698e-01
6.644925e-01
6.544378e-01
6.445870e-01
6.349241e-01
6.254343e-01
6.161050e-01
6.069248e-01
5.978835e-01
5.889722e-01
5.801826e-01
5.715076e-01
5.629406e-01
5.544757e-01
5.461074e-01
5.378307e-01
5.296413e-01
5.215347e-01
5.135073e-01
5.055553e-01
4.976755e-01
4.898647e-01
4.821201e-01
4.744387e-01
4.668181e-01
4.592559e-01
4.517496e-01
4.442971e-01
4.368964e-01
4.295454e-01
4.222423e-01
4.149853e-01
4.077726e-01
4.006027e-01
3.934740e-01
3.863849e-01
3.793341e-01
3.723201e-01
3.653417e-01
3.583976e-01
3.514866e-01
3.446074e-01
3.377591e-01
3.309404e-01
3.241504e-01
3.173881e-01
3.106524e-01
3.039426e-01
2.972576e-01
2.905966e-01
2.839587e-01
2.773433e-01
2.707494e-01
2.641765e-01
2.576236e-01
2.510902e-01
2.445755e-01
2.380790e-01
2.316000e-01
2.251378e-01
2.186920e-01
2.122619e-01
2.058471e-01
1.994469e-01
1.930609e-01
1.866885e-01
1.803294e-01
1.739831e-01
1.676490e-01
1.613269e-01
1.550162e-01
1.487166e-01
1.424278e-01
1.361492e-01
1.298807e-01
1.236218e-01
1.173721e-01
1.111315e-01
1.048995e-01
9.867588e-02
9.246034e-02
8.625261e-02
8.005240e-02
7.385947e-02
6.767354e-02
6.149439e-02
5.532177e-02
4.915545e-02
4.299518e-02
3.684074e-02
3.069192e-02
2.454852e-02
1.841039e-02
1.227747e-02
6.149839e-03
0.000000e+00
9.829839e-01
9.829839e-01
9.774838e-01
9.682476e-01
9.560211e-01
9.416163e-01
9.257820e-01
9.091398e-01
8.921687e-01
8.752166e-01
8.585225e-01
8.422406e-01
8.264614e-01
8.112297e-01
7.965581e-01
7.824378e-01
7.688464e-01
7.557533e-01
7.431236e-01
7.309215e-01
7.191112e-01
7.076589e-01
6.965328e-01
6.857039e-01
6.751459e-01
6.648351e-01
6.547504e-01
6.448730e-01
6.351862e-01
6.256752e-01
6.163269e-01
6.071297e-01
5.980731e-01
5.891480e-01
5.803461e-01
5.716599e-01
5.630827e-01
5.546086e-01
5.462318e-01
5.379475e-01
5.297509e-01
5.216379e-01
5.136045e-01
5.056471e-01
4.977622e-01
4.899467e-01
4.821976e-01
4.745122e-01
4.668878e-01
4.593220e-01
4.518124e-01
4.443568e-01
4.369532e-01
4.295995e-01
4.222938e-01
4.150344e-01
4.078194e-01
4.006474e-01
3.935166e-01
3.864257e-01
3.793730e-01
3.723574e-01
3.653774e-01
3.584317e-01
3.515192e-01
3.446387e-01
3.377890e-01
3.309691e-01
3.241780e-01
3.174145e-01
3.106778e-01
3.039669e-01
2.972809e-01
2.906190e-01
2.839803e-01
2.773640e-01
2.707693e-01
2.641956e-01
2.576420e-01
2.511078e-01
2.445925e-01
2.380953e-01
2.316157e-01
2.251529e-01
2.187065e-01
2.122759e-01
2.058605e-01
1.994598e-01
1.930733e-01
1.867005e-01
1.803410e-01
1.739942e-01
1.676597e-01
1.613372e-01
1.550262e-01
1.487262e-01
1.424370e-01
1.361581e-01
1.298892e-01
1.236300e-01
1.173801e-01
1.111391e-01
1.049069e-01
9.868298e-02
9.246719e-02
8.625921e-02
8.005876e-02
7.386559e-02
6.767944e-02
6.150007e-02
5.532724e-02
4.916071e-02
4.300026e-02
3.684565e-02
3.069671e-02
2.455326e-02
1.841521e-02
1.228255e-02
6.155484e-03
0.000000e+00
9.801585e-01
9.801585e-01
9.750046e-01
9.662932e-01
9.546585e-01
9.408201e-01
9.254704e-01
9.092084e-01
8.925136e-01
8.757471e-01
8.591657e-01
8.429411e-01
8.271794e-01
8.119379e-01
7.972388e-01
7.830804e-01
7.694453e-01
7.563064e-01
7.436313e-01
7.313855e-01
7.195342e-01
7.080440e-01
6.968833e-01
6.860231e-01
6.754368e-01
6.651007e-01
6.549933e-01
6.450956e-01
6.353907e-01
6.258635e-01
6.165007e-01
6.072904e-01
5.982221e-01
5.892865e-01
5.804750e-01
5.717802e-01
5.631951e-01
5.547138e-01
5.463305e-01
5.380402e-01
5.298381e-01
5.217200e-01
5.136819e-01
5.057202e-01
4.978313e-01
4.900120e-01
4.822595e-01
4.745709e-01
4.669435e-01
4.593749e-01
4.518627e-01
4.444046e-01
4.369987e-01
4.296428e-01
4.223351e-01
4.150738e-01
4.078570e-01
4.006833e-01
3.935509e-01
3.864584e-01
3.794043e-01
3.723873e-01
3.654060e-01
3.584591e-01
3.515455e-01
3.446639e-01
3.378132e-01
3.309923e-01
3.242001e-01
3.174358e-01
3.106982e-01
3.039865e-01
2.972997e-01
2.906370e-01
2.839976e-01
2.773806e-01
2.707853e-01
2.642109e-01
2.576567e-01
2.511220e-01
2.446062e-01
2.381085e-01
2.316283e-01
2.251651e-01
2.187182e-01
2.122872e-01
2.058713e-01
1.994702e-01
1.930834e-01
1.867102e-01
1.803503e-01
1.740031e-01
1.676684e-01
1.613455e-01
1.550342e-01
1.487339e-01
1.424444e-01
1.361653e-01
1.298961e-01
1.236366e-01
1.173865e-01
1.111453e-01
1.049128e-01
9.868870e-02
9.247271e-02
8.626452e-02
8.006388e-02
7.387052e-02
6.768419e-02
6.150465e-02
5.533165e-02
4.916496e-02
4.300436e-02
3.684962e-02
3.070059e-02
2.455711e-02
1.841912e-02
1.228668e-02
6.160061e-03
0.000000e+00
9.783108e-01
9.783108e-01
9.733776e-01
9.650029e-01
9.537516e-01
9.402841e-01
9.252549e-01
9.092466e-01
8.927379e-01
8.760975e-01
8.595935e-01
8.434093e-01
8.276610e-01
8.124142e-01
7.976977e-01
7.835145e-01
7.698507e-01
7.566816e-01
7.439763e-01
7.317014e-01
7.198228e-01
7.083072e-01
6.971232e-01
6.862419e-01
6.756367e-01
6.652835e-01
6.551608e-01
6.452494e-01
6.355321e-01
6.259939e-01
6.166212e-01
6.074020e-01
5.983258e-01
5.893829e-01
5.805648e-01
5.718641e-01
5.632736e-01
5.547873e-01
5.463995e-01
5.381051e-01
5.298992e-01
5.217776e-01
5.137363e-01
5.057715e-01
4.978798e-01
4.900580e-01
4.823030e-01
4.746122e-01
4.669827e-01
4.594121e-01
4.518980e-01
4.444383e-01
4.370307e-01
4.296733e-01
4.223642e-01
4.151015e-01
4.078835e-01
4.007085e-01
3.935750e-01
3.864815e-01
3.794264e-01
3.724084e-01
3.654262e-01
3.584785e-01
3.515640e-01
3.446816e-01
3.378301e-01
3.310086e-01
3.242158e-01
3.174507e-01
3.107126e-01
3.040003e-01
2.973129e-01
2.906497e-01
2.840098e-01
2.773924e-01
2.707966e-01
2.642218e-01
2.576672e-01
2.511321e-01
2.446158e-01
2.381177e-01
2.316372e-01
2.251737e-01
2.187265e-01
2.122951e-01
2.058790e-01
1.994776e-01
1.930904e-01
1.867170e-01
1.803568e-01
1.740095e-01
1.676744e-01
1.613513e-01
1.550398e-01
1.487393e-01
1.424496e-01
1.361703e-01
1.299010e-01
1.236413e-01
1.173910e-01
1.111496e-01
1.049170e-01
9.869273e-02
9.247659e-02
8.626826e-02
8.006748e-02
7.387399e-02
6.768754e-02
6.150787e-02
5.533475e-02
4.916795e-02
4.300724e-02
3.685242e-02
3.070332e-02
2.455983e-02
1.842189e-02
1.228960e-02
6.163289e-03
0.000000e+00
9.773992e-01
9.773992e-01
9.725758e-01
9.643684e-01
9.533081e-01
9.400259e-01
9.251573e-01
9.092765e-01
8.928612e-01
8.762842e-01
8.598189e-01
8.436545e-01
8.279125e-01